  MPI-parallelism will be employed.
------------------------------------------------------------
          Invoking FHI-aims ...
          Version 181008
          Git rev. (modified): 79714067 Remove flags defined in Makefile.
          Compiled on 2020/03/25 at 17:13:11 on host login03.

          When using FHI-aims, please cite the following reference:

          Volker Blum, Ralf Gehrke, Felix Hanke, Paula Havu,
          Ville Havu, Xinguo Ren, Karsten Reuter, and Matthias Scheffler,
          'Ab Initio Molecular Simulations with Numeric Atom-Centered Orbitals',
          Computer Physics Communications 180, 2175-2196 (2009)

          For any questions about FHI-aims, please visit the aimsclub website
          with its forums and wiki. Contributions to both the forums and the
          wiki are warmly encouraged - they are for you, and everyone is welcome there.

------------------------------------------------------------



  Date     :  20230309, Time     :  184159.716
  Time zero on CPU 1             :   0.159560000000000E+00  s.
  Internal wall clock time zero  :           447619319.716  s.

  FHI-aims created a unique identifier for this run for later identification
  aims_uuid : CFC64B83-3972-493C-AF91-38D2E2EE4CD3

  Using        4 parallel tasks.
  Task        0 on host node-k98j-032 reporting.
  Task        1 on host node-k98j-032 reporting.
  Task        2 on host node-k98j-032 reporting.
  Task        3 on host node-k98j-032 reporting.

  Performing system and environment tests:
  *** Environment variable OMP_NUM_THREADS is not set
  *** For performance reasons you might want to set it to 1
  | Stacksize not measured: no C compiler
  | Checking for scalapack...
  | No scalapack compiled in.

  Obtaining array dimensions for all initial allocations:
  
  -----------------------------------------------------------------------
  Parsing control.in (first pass over file, find array dimensions only).
  The contents of control.in will be repeated verbatim below
  unless switched off by setting 'verbatim_writeout .false.' .
  in the first line of control.in .
  -----------------------------------------------------------------------
  
  xc                 pbesol
  spin               none
  relativistic       atomic_zora scalar
  #charge             2.
  #k-point grid
  #k_grid 6	6	6
  #  SCF convergence
  occupation_type    gaussian 0.01
  mixer              pulay
  n_max_pulay        10
  charge_mix_param   0.5
  sc_accuracy_rho    1E-4
  sc_accuracy_eev    1E-3
  sc_accuracy_etot   1E-5
  sc_accuracy_forces 1E-4
  sc_iter_limit      3500
  
  #  Relaxation
  #relax_unit_cell full
  relax_geometry   bfgs 1.e-3
  ## Constrained Opti
  #relax_unit_cell	fixed_angles
  ##
  #output mulliken
  
  output dipole
  
  ################################################################################
  #
  #  FHI-aims code project
  #  VB, Fritz-Haber Institut, 2009
  #
  #  Suggested "light" defaults for O atom (to be pasted into control.in file)
  #  Be sure to double-check any results obtained with these settings for post-processing,
  #  e.g., with the "tight" defaults and larger basis sets.
  #
  ################################################################################
    species        O
  #     global species definitions
      nucleus             8
      mass                15.9994
  #
      l_hartree           4
  #
      cut_pot             3.5  1.5  1.0
      basis_dep_cutoff    1e-4
  #
      radial_base         36 5.0
      radial_multiplier   1
       angular_grids specified
        division   0.2659   50
        division   0.4451  110
        division   0.6052  194
        division   0.7543  302
  #      division   0.8014  434
  #      division   0.8507  590
  #      division   0.8762  770
  #      division   0.9023  974
  #      division   1.2339 1202
  #      outer_grid 974
        outer_grid 302
  ################################################################################
  #
  #  Definition of "minimal" basis
  #
  ################################################################################
  #     valence basis states
      valence      2  s   2.
      valence      2  p   4.
  #     ion occupancy
      ion_occ      2  s   1.
      ion_occ      2  p   3.
  ################################################################################
  #
  #  Suggested additional basis functions. For production calculations,
  #  uncomment them one after another (the most important basis functions are
  #  listed first).
  #
  #  Constructed for dimers: 1.0 A, 1.208 A, 1.5 A, 2.0 A, 3.0 A
  #
  ################################################################################
  #  "First tier" - improvements: -699.05 meV to -159.38 meV
       hydro 2 p 1.8
       hydro 3 d 7.6
       hydro 3 s 6.4
  #  "Second tier" - improvements: -49.91 meV to -5.39 meV
  #     hydro 4 f 11.6
  #     hydro 3 p 6.2
  #     hydro 3 d 5.6
  #     hydro 5 g 17.6
  #     hydro 1 s 0.75
  #  "Third tier" - improvements: -2.83 meV to -0.50 meV
  #     ionic 2 p auto
  #     hydro 4 f 10.8
  #     hydro 4 d 4.7
  #     hydro 2 s 6.8
  #  "Fourth tier" - improvements: -0.40 meV to -0.12 meV
  #     hydro 3 p 5
  #     hydro 3 s 3.3
  #     hydro 5 g 15.6
  #     hydro 4 f 17.6
  #     hydro 4 d 14
  # Further basis functions - -0.08 meV and below
  #     hydro 3 s 2.1
  #     hydro 4 d 11.6
  #     hydro 3 p 16
  #     hydro 2 s 17.2
  ################################################################################
  #
  #  FHI-aims code project
  #  VB, Fritz-Haber Institut, 2009
  #
  #  Suggested "light" defaults for Pb atom (to be pasted into control.in file)
  #  Be sure to double-check any results obtained with these settings for post-processing,
  #  e.g., with the "tight" defaults and larger basis sets.
  #
  #
  ################################################################################
    species        Pb
  #     global species definitions
      nucleus             82
      mass                207.2
  #
      l_hartree           4
  #
      cut_pot             4.0  1.5  1.0
      basis_dep_cutoff    1e-4
  #
      radial_base         74 5.5
      radial_multiplier   1
      angular_grids specified
        division   0.1064  110
        division   0.1579  194
        division   0.2150  302
  #      division   1.0164  434
  #      division   1.1544  590
  #      division   1.1970  770
  #      division   7.7779  974
  #      outer_grid  974
        outer_grid 302
  ################################################################################
  #
  #  Definition of "minimal" basis
  #
  ################################################################################
  #     valence basis states
      valence      6  s   2.
      valence      6  p   2.
      valence      5  d  10.
      valence      4  f  14.
  #     ion occupancy
      ion_occ     6  s    1.
      ion_occ     6  p    1.
      ion_occ     5  d   10.
      ion_occ     4  f   14.
  ################################################################################
  #
  #  Suggested additional basis functions. For production calculations,
  #  uncomment them one after another (the most important basis functions are
  #  listed first).
  #
  #  Constructed for dimers: 2.225, 2.50, 2.88, 3.625, 4.50
  #
  ################################################################################
  #  "First tier" - max. impr. -156.54 meV, min. impr. -14.49 meV
       hydro 3 p 2.3
       hydro 4 f 7.6
       hydro 3 d 3.5
  #     hydro 5 g 9.8
       hydro 3 s 3.2
  #  "Second tier" - max. impr. -4.38  meV, min. impr. -0.30 meV
  #     hydro 6 h 12.8
  #     hydro 3 d 2.4
  #     hydro 5 f 7.2
  #     hydro 5 f 14.8
  #     hydro 4 p 5.4
  #     ionic 6 s auto
  #  "Third tier" - max. impr. -0.86 meV, min. impr. -0.16 meV
  #     hydro 5 p 14.4
  #     hydro 5 g 8.2
  #     hydro 4 d 4.6
  #     hydro 6 h 12.4
  #     hydro 6 d 12.4
  #     hydro 4 s 4
  #     hydro 5 g 32.8
  #     hydro 5 f 9.4
  #  Further functions: -0.10 meV and below
  #     hydro 5 f 17.6
  #     hydro 7 p 19.6
  
  -----------------------------------------------------------------------
  Completed first pass over input file control.in .
  -----------------------------------------------------------------------
  
  
  -----------------------------------------------------------------------
  Parsing geometry.in (first pass over file, find array dimensions only).
  The contents of geometry.in will be repeated verbatim below
  unless switched off by setting 'verbatim_writeout .false.' .
  in the first line of geometry.in .
  -----------------------------------------------------------------------
  
  #FHIAIMS - VVUQ TESTING static PbO
  atom	0.11375123373727786	-0.04440077382909662	-0.1192829096902278	O
  atom	1.903626287084383	0.09622016012973211	0.04899861963445298	Pb
  
  -----------------------------------------------------------------------
  Completed first pass over input file geometry.in .
  -----------------------------------------------------------------------
  

  Basic array size parameters:
  | Number of species                 :        2
  | Number of atoms                   :        2
  | Max. basis fn. angular momentum   :        3
  | Max. atomic/ionic basis occupied n:        6
  | Max. number of basis fn. types    :        2
  | Max. radial fns per species/type  :       15
  | Max. logarithmic grid size        :     1491
  | Max. radial integration grid size :       74
  | Max. angular integration grid size:      302
  | Max. angular grid division number :        8
  | Radial grid for Hartree potential :     1491
  | Number of spin channels           :        1

------------------------------------------------------------
          Reading file control.in.
------------------------------------------------------------
  XC: Using PBEsol gradient-corrected functionals.
  Spin treatment: No spin polarisation.
  Scalar relativistic treatment of kinetic energy: on-site free-atom approximation to ZORA.
  Occupation type: Gaussian broadening, width =   0.100000E-01 eV.
  Using pulay charge density mixing.
  Pulay mixing - number of memorized iterations:   10
  Charge density mixing - mixing parameter:     0.5000
  Convergence accuracy of self-consistent charge density:  0.1000E-03
  Convergence accuracy of sum of eigenvalues:  0.1000E-02
  Convergence accuracy of total energy:  0.1000E-04
  Convergence accuracy of forces:  0.1000E-03
  Maximum number of s.-c. iterations  :  3500
  Geometry relaxation: Modified BFGS - TRM (trust radius method, i.e., trusted quadratic extrapolation).
  Convergence accuracy for geometry relaxation: Maximum force <   0.100000E-02 eV/A.
  Dipole moment will be written out.
 
  Reading configuration options for species O                   .
  | Found nuclear charge :   8.0000
  | Found atomic mass :    15.9994000000000      amu
  | Found l_max for Hartree potential  :   4
  | Found cutoff potl. onset [A], width [A], scale factor :    3.50000    1.50000    1.00000
  | Threshold for basis-dependent cutoff potential is   0.100000E-03
  | Found data for basic radial integration grid :    36 points, outermost radius =    5.000 A
  | Found multiplier for basic radial grid :   1
  | Found angular grid specification: user-specified.
  | Specified grid contains     5 separate shells.
  | Check grid settings after all constraints further below.
  | Found free-atom valence shell :  2 s   2.000
  | Found free-atom valence shell :  2 p   4.000
  | No ionic wave fns used. Skipping ion_occ.
  | No ionic wave fns used. Skipping ion_occ.
  | Found hydrogenic basis function :  2 p   1.800
  | Found hydrogenic basis function :  3 d   7.600
  | Found hydrogenic basis function :  3 s   6.400
  Species O                   : Missing cutoff potential type.
  Defaulting to exp(1/x)/(1-x)^2 type cutoff potential.
  Species O : No 'logarithmic' tag. Using default grid for free atom:
  | Default logarithmic grid data [bohr] : 0.1000E-03 0.1000E+03 0.1012E+01
  Species O : On-site basis accuracy parameter (for Gram-Schmidt orthonormalisation) not specified.
  Using default value basis_acc =  0.1000000E-03.
  Species O                   : Using default innermost maximum threshold i_radial=  2 for radial functions.
  Species O                   : Default cutoff onset for free atom density etc. : 0.35000000E+01 AA.
  Species O                   : Basic radial grid will be enhanced according to radial_multiplier =   1, to contain    36 grid points.
 
  Reading configuration options for species Pb                  .
  | Found nuclear charge :  82.0000
  | Found atomic mass :    207.200000000000      amu
  | Found l_max for Hartree potential  :   4
  | Found cutoff potl. onset [A], width [A], scale factor :    4.00000    1.50000    1.00000
  | Threshold for basis-dependent cutoff potential is   0.100000E-03
  | Found data for basic radial integration grid :    74 points, outermost radius =    5.500 A
  | Found multiplier for basic radial grid :   1
  | Found angular grid specification: user-specified.
  | Specified grid contains     4 separate shells.
  | Check grid settings after all constraints further below.
  | Found free-atom valence shell :  6 s   2.000
  | Found free-atom valence shell :  6 p   2.000
  | Found free-atom valence shell :  5 d  10.000
  | Found free-atom valence shell :  4 f  14.000
  | No ionic wave fns used. Skipping ion_occ.
  | No ionic wave fns used. Skipping ion_occ.
  | No ionic wave fns used. Skipping ion_occ.
  | No ionic wave fns used. Skipping ion_occ.
  | Found hydrogenic basis function :  3 p   2.300
  | Found hydrogenic basis function :  4 f   7.600
  | Found hydrogenic basis function :  3 d   3.500
  | Found hydrogenic basis function :  3 s   3.200
  Species Pb                  : Missing cutoff potential type.
  Defaulting to exp(1/x)/(1-x)^2 type cutoff potential.
  Species Pb: No 'logarithmic' tag. Using default grid for free atom:
  | Default logarithmic grid data [bohr] : 0.1000E-03 0.1000E+03 0.1012E+01
  Species Pb: On-site basis accuracy parameter (for Gram-Schmidt orthonormalisation) not specified.
  Using default value basis_acc =  0.1000000E-03.
  Species Pb                  : Using default innermost maximum threshold i_radial=  2 for radial functions.
  Species Pb                  : Default cutoff onset for free atom density etc. : 0.40000000E+01 AA.
  Species Pb                  : Basic radial grid will be enhanced according to radial_multiplier =   1, to contain    74 grid points.
 
  Finished reading input file 'control.in'. Consistency checks are next.
 
  MPI_IN_PLACE appears to work with this MPI implementation.
  | Keeping use_mpi_in_place .true. (see manual).
  Target number of points in a grid batch is not set. Defaulting to  100
  Method for grid partitioning is not set. Defaulting to parallel hash+maxmin partitioning.
  Batch size limit is not set. Defaulting to    200
  By default, will store active basis functions for each batch.
  If in need of memory, prune_basis_once .false. can be used to disable this option.
  communication_type for Hartree potential was not specified.
  Defaulting to calc_hartree .
  Pulay mixer: Number of initial linear mixing iterations not set.
  Defaulting to    0 iterations.
  Work space size for distributed Hartree potential not set.
  Defaulting to   0.200000E+03 MB.
  Algorithm-dependent basis array size parameters:
  | n_max_pulay                         :       10
  Presetting      1001 iterations before the initial mixing cycle
  is restarted anyway using the sc_init_iter criterion / keyword.
  Presetting a factor      1.000 between actual scf density residual
  and density convergence criterion sc_accuracy_rho below which sc_init_iter
  takes no effect.
  No maximum number of relaxation steps, defaulting to     1000
  Default initial Hessian is Lindh matrix (thres = 15.00) plus  0.200000E+01 eV/A^2 times unity.
  No maximum energy tolerance for TRM/BFGS moves, defaulting to   0.100000E-02
  Maximum energy tolerance by which TRM/BFGS trajectory may increase over multiple steps:   0.300000E-02
  No harmonic length scale. Defaulting to   0.250000E-01 A.
  No trust radius initializer. Defaulting to   0.200000E+00 A.
  Handling of forces: Unphysical translation and rotation will be removed from forces.
  No accuracy limit for integral partition fn. given. Defaulting to  0.1000E-14.
  No threshold value for u(r) in integrations given. Defaulting to  0.1000E-05.
  No accuracy for occupation numbers given. Defaulting to  0.1000E-12.
  No threshold value for occupation numbers given. Defaulting to  0.0000E+00.
  No accuracy for fermi level given. Defaulting to  0.1000E-19.
  Maximum # of iterations to find E_F not set. Defaulting to  200.
  Preferred method for the eigenvalue solver ('KS_method') not specified in 'control.in'.
  Calling BLACS routine to test compilation state
  The best choice would be 'elsi', but your version of FHI-aims is compiled without ScaLAPACK support.
  Defaulting to 'lapack_fast' instead (serial solution, time will not improve with more CPUs).
  Will not use alltoall communication since running on < 1024 CPUs.
  Threshold for basis singularities not set.
  Default threshold for basis singularities:  0.1000E-04
  partition_type (choice of integration weights) for integrals was not specified.
  | Using a version of the partition function of Stratmann and coworkers ('stratmann_sparse').
  | At each grid point, the set of atoms used to build the partition table is smoothly restricted to
  | only those atoms whose free-atom density would be non-zero at that grid point.
  Partitioning for Hartree potential was not defined. Using partition_type for integrals.
  | Adjusted default value of keyword multip_moments_threshold to:       0.10000000E-11
  | This value may affect high angular momentum components of the Hartree potential in periodic systems.
  No q(lm)/r^(l+1) cutoff set for long-range Hartree potential.
  | Using default value of  0.100000E-09 .
  | Verify using the multipole_threshold keyword.
  Defaulting to new monopole extrapolation.
  Density update method: automatic selection selected.
  Geometry relaxation: A file "geometry.in.next_step" is written out by default after each step.
  | This file contains the geometry of the current relaxation step as well as
  | the current Hessian matrix needed to restart the relaxation algorithm.
  | If you do not want part or all of this information, use the keywords
  | "write_restart_geometry" or "hessian_to_restart_geometry" to switch the output off.
------------------------------------------------------------


------------------------------------------------------------
          Reading geometry description geometry.in.
------------------------------------------------------------
  Input structure read successfully.
  The structure contains        2 atoms,  and a total of         90.000 electrons.

  Input geometry:
  | No unit cell requested.
  | Atomic structure:
  |       Atom                x [A]            y [A]            z [A]
  |    1: Species O             0.11375123       -0.04440077       -0.11928291
  |    2: Species Pb            1.90362629        0.09622016        0.04899862
  |

  | The smallest distance between any two atoms is         1.80325972 AA.
  |
  | The first atom of this pair is atom number                      1 .
  | The second atom of this pair is atom number                     2 .

  Number of empty states per atom not set in control.in - providing a guess from actual geometry.
  | Total number of empty states used during s.c.f. cycle:       12
  If you use a very high smearing, use empty_states (per atom!) in control.in to increase this value.

  Structure-dependent array size parameters: 
  | Maximum number of distinct radial functions  :       25
  | Maximum number of basis functions            :       73
  | Number of Kohn-Sham states (occupied + empty):       57
------------------------------------------------------------

------------------------------------------------------------
          Preparing all fixed parts of the calculation.
------------------------------------------------------------
  Determining machine precision:
    2.225073858507201E-308
  Setting up grids for atomic and cluster calculations.

  Creating wave function, potential, and density for free atoms.

  Species: O

  List of occupied orbitals and eigenvalues:
    n    l              occ      energy [Ha]    energy [eV]
    1    0           2.0000       -18.926989      -515.0296
    2    0           2.0000        -0.880247       -23.9527
    2    1           4.0000        -0.331514        -9.0210


  Species: Pb

  List of occupied orbitals and eigenvalues:
    n    l              occ      energy [Ha]    energy [eV]
    1    0           2.0000     -3583.275374    -97505.8840
    2    0           2.0000      -591.288386    -16089.7756
    3    0           2.0000      -139.815632     -3804.5769
    4    0           2.0000       -31.498090      -857.1066
    5    0           2.0000        -5.283870      -143.7814
    6    0           2.0000        -0.434182       -11.8147
    2    1           6.0000      -505.944692    -13767.4555
    3    1           6.0000      -115.938523     -3154.8477
    4    1           6.0000       -23.732126      -645.7840
    5    1           6.0000        -3.141456       -85.4834
    6    1           2.0000        -0.120461        -3.2779
    3    2          10.0000       -91.723313     -2495.9183
    4    2          10.0000       -14.773305      -402.0021
    5    2          10.0000        -0.769506       -20.9393
    4    3          14.0000        -4.885932      -132.9530

  Creating fixed part of basis set: Ionic, confined, hydrogenic.
 
  O                    hydrogenic:
 
  List of hydrogenic basis orbitals: 
    n    l      effective z      eigenvalue [eV]  inner max. [A]     outer max. [A]     outer radius [A]   
    2    1         1.800000       -10.9749           1.164242           1.164242           4.578029
    3    2         7.600000       -87.3180           0.624125           0.624125           3.251020
    3    0         6.400000       -61.9207           0.061167           1.081902           4.001998
 
 
  Pb                   hydrogenic:
 
  List of hydrogenic basis orbitals: 
    n    l      effective z      eigenvalue [eV]  inner max. [A]     outer max. [A]     outer radius [A]   
    3    1         2.300000        -7.3978           0.685138           2.597082           5.087378
    4    3         7.600000       -49.1160           1.117244           1.117244           4.447258
    3    2         3.500000       -18.5104           1.358613           1.358613           5.025564
    3    0         3.200000       -15.3818           0.122229           2.161957           5.087378
 

  Adding cutoff potential to free-atom effective potential.
  Creating atomic-like basis functions for current effective potential.

  Species O                   :

  List of atomic basis orbitals and eigenvalues:
    n    l      energy [Ha]    energy [eV]    outer radius [A]
    1    0       -18.926989      -515.0296       1.415765
    2    0        -0.880247       -23.9527       4.413171
    2    1        -0.331514        -9.0210       4.522403


  Species Pb                  :

  List of atomic basis orbitals and eigenvalues:
    n    l      energy [Ha]    energy [eV]    outer radius [A]
    1    0     -3583.275374    -97505.8840       0.114982
    2    0      -591.288386    -16089.7756       0.298366
    3    0      -139.815632     -3804.5769       0.621304
    4    0       -31.498090      -857.1066       1.278055
    5    0        -5.283870      -143.7814       2.934797
    6    0        -0.434182       -11.8147       5.025564
    2    1      -505.944692    -13767.4555       0.317173
    3    1      -115.938523     -3154.8477       0.668590
    4    1       -23.732126      -645.7840       1.426700
    5    1        -3.141456       -85.4834       3.657164
    6    1        -0.120461        -3.2779       5.087378
    3    2       -91.723313     -2495.9183       0.719474
    4    2       -14.773305      -402.0021       1.713844
    5    2        -0.769506       -20.9393       4.844590
    4    3        -4.885932      -132.9530       2.597082

  Assembling full basis from fixed parts.
  | Species O :   atomic orbital   1 s accepted.
  | Species O :    hydro orbital   3 s accepted.
  | Species O :   atomic orbital   2 s accepted.
  | Species O :   atomic orbital   2 p accepted.
  | Species O :    hydro orbital   2 p accepted.
  | Species O :    hydro orbital   3 d accepted.
  | Species Pb :   atomic orbital   1 s accepted.
  | Species Pb :   atomic orbital   2 s accepted.
  | Species Pb :   atomic orbital   3 s accepted.
  | Species Pb :   atomic orbital   4 s accepted.
  | Species Pb :   atomic orbital   5 s accepted.
  | Species Pb :   atomic orbital   6 s accepted.
  | Species Pb :    hydro orbital   3 s accepted.
  | Species Pb :   atomic orbital   2 p accepted.
  | Species Pb :   atomic orbital   3 p accepted.
  | Species Pb :   atomic orbital   4 p accepted.
  | Species Pb :   atomic orbital   5 p accepted.
  | Species Pb :   atomic orbital   6 p accepted.
  | Species Pb :    hydro orbital   3 p accepted.
  | Species Pb :   atomic orbital   3 d accepted.
  | Species Pb :   atomic orbital   4 d accepted.
  | Species Pb :   atomic orbital   5 d accepted.
  | Species Pb :    hydro orbital   3 d accepted.
  | Species Pb :   atomic orbital   4 f accepted.
  | Species Pb :    hydro orbital   4 f accepted.
 
  Basis size parameters after reduction:
  | Total number of radial functions:       25
  | Total number of basis functions :       73
 
  Per-task memory consumption for arrays in subroutine allocate_ext:
  |           9.545620MB.
  Testing on-site integration grid accuracy.
  |  Species  Function  <phi|h_atom|phi> (log., in eV)  <phi|h_atom|phi> (rad., in eV)
           1        1               -515.0295626295               -515.0294562738
           1        2                 15.1698434419                 15.1699322204
           1        3                -21.6038822678                -21.6039118105
           1        4                 -9.0211123393                 -9.0212703513
           1        5                  8.3047696391                  8.2854840999
           1        6                 45.8428042125                 45.8427461222
           2        7             -97505.8839916597             -97505.4610915720 ***
           2        8             -16089.7756224867             -16089.7673698558
           2        9              -3804.5769230374              -3804.5764843087
           2       10               -857.1066466665               -857.1066165521
           2       11               -143.7814146583               -143.7814107259
           2       12                -11.8148645926                -11.8150585698
           2       13                  3.1384536114                  3.1074738951 ***
           2       14             -13767.4555482041             -13767.4555179163
           2       15              -3154.8477157471              -3154.8477089453
           2       16               -645.7840140064               -645.7840104767
           2       17                -85.4833700251                -85.4833680553
           2       18                 -3.2863583968                 -3.2978599646
           2       19                  5.7851278719                  5.6622419767 ***
           2       20              -2495.9183401346              -2495.9183384015
           2       21               -402.0020691689               -402.0020673701
           2       22                -20.9393228216                -20.9393223968
           2       23                  7.1026569115                  7.0986049218
           2       24               -132.9529645464               -132.9529639915
           2       25                 17.8899917474                 17.8898480697
 * Note: Onsite integrals marked "***" above are less accurate than
 * onsite_accuracy_threshold =    0.03000 eV. Usually, this is harmless.
 * However, one integral did have a negative value. This integral could be important.
 * When in doubt, tighten the "radial" and/or "radial_multiplier" flags to check.

  Preparing densities etc. for the partition functions (integrals / Hartree potential).

  Preparations completed.
  max(cpu_time)          :      0.316 s.
  Wall clock time (cpu1) :      0.401 s.
------------------------------------------------------------

------------------------------------------------------------
          Begin self-consistency loop: Initialization.

          Date     :  20230309, Time     :  184200.212
------------------------------------------------------------

  Initializing index lists of integration centers etc. from given atomic structure:
  | Number of centers in hartree potential         :         2
  | Number of centers in hartree multipole         :         2
  | Number of centers in electron density summation:         2
  | Number of centers in basis integrals           :         2
  | Number of centers in integrals                 :         2
  | Number of centers in hamiltonian               :         2

  Initializing relaxation algorithms.
  Partitioning the integration grid into batches with parallel hashing+maxmin method.
  | Number of batches:      330
  | Maximal batch size:     157
  | Minimal batch size:      58
  | Average batch size:      74.885
  | Standard deviation of batch sizes:      18.086

  Integration load balanced across     4 MPI tasks.
  Work distribution over tasks is as follows:
  Task     0 has       6141 integration points.
  Task     1 has       6181 integration points.
  Task     2 has       6180 integration points.
  Task     3 has       6210 integration points.
  Initializing partition tables, free-atom densities, potentials, etc. across the integration grid (initialize_grid_storage).
  | initialize_grid_storage: Actual outermost partition radius vs. multipole_radius_free
  | (-- VB: in principle, multipole_radius_free should be larger, hence this output)
  | Species        1: Confinement radius =              4.999999999999999 AA, multipole_radius_free =              5.048384829883283 AA.
  | Species        1: outer_partition_radius set to              5.048384829883283 AA .
  | Species        2: Confinement radius =              5.500000000000000 AA, multipole_radius_free =              5.541900383498898 AA.
  | Species        2: outer_partition_radius set to              5.541900383498898 AA .
  | The sparse table of interatomic distances needs      0.0360 kbyte instead of     0.0320 kbyte of memory.
  | Using the partition_type stratmann_smoother will reduce your memory usage.
  | Net number of integration points:    24712
  | of which are non-zero points    :    24200
  Renormalizing the initial density to the exact electron count on the 3D integration grid.
  | Initial density: Formal number of electrons (from input files) :      90.0000000000
  | Integrated number of electrons on 3D grid     :      89.9997894488
  | Charge integration error                      :      -0.0002105512
  | Normalization factor for density and gradient :       1.0000023395
  Obtaining max. number of non-zero basis functions in each batch (get_n_compute_maxes).
  | Maximal number of non-zero basis functions:       73 in task     0
  | Maximal number of non-zero basis functions:       73 in task     1
  | Maximal number of non-zero basis functions:       73 in task     2
  | Maximal number of non-zero basis functions:       73 in task     3
  Selecting the method for density update.
  Electron density will be updated via Kohn Sham orbitals; 
  first relaxation step: forces will be updated via orbitals;
  second relaxation step: forces will be updated via density matrix;
  finally, the fastest method will be selected
  Allocating        0.033 MB for KS_eigenvector
  Integrating Hamiltonian matrix: batch-based integration.
  Time summed over all CPUs for integration: real work        2.102 s, elapsed        3.801 s => Consider using load balancing!
  Integrating overlap matrix.
  Time summed over all CPUs for integration: real work        0.853 s, elapsed        1.612 s

  Updating Kohn-Sham eigenvalues, eigenvectors, occupation numbers, and Fermi level.
  Solving generalized eigenproblem
  Updating Kohn-Sham eigenvalues and eigenfunctions.
  Transforming overlap matrix and checking for singularities.
  Overlap matrix is nonsingular:
  | Lowest eigenvalue:  0.361845E-01
  Solving real generalised eigenvalue problem by standard LAPACK (fast)

  Obtaining occupation numbers and chemical potential using ELSI.
  | Chemical potential (Fermi level):    -3.08220630 eV
  Writing Kohn-Sham eigenvalues.

  State    Occupation    Eigenvalue [Ha]    Eigenvalue [eV]
      1       2.00000       -3581.948696       -97469.78322
      2       2.00000        -591.093111       -16084.46193
      3       2.00000        -505.841945       -13764.65966
      4       2.00000        -505.841932       -13764.65930
      5       2.00000        -505.841932       -13764.65930
      6       2.00000        -139.760591        -3803.07918
      7       2.00000        -115.911564        -3154.11413
      8       2.00000        -115.911456        -3154.11120
      9       2.00000        -115.911456        -3154.11120
     10       2.00000         -91.710814        -2495.57823
     11       2.00000         -91.710792        -2495.57762
     12       2.00000         -91.710792        -2495.57762
     13       2.00000         -91.710729        -2495.57591
     14       2.00000         -91.710729        -2495.57591
     15       2.00000         -31.472296         -856.40474
     16       2.00000         -23.715627         -645.33506
     17       2.00000         -23.715011         -645.31829
     18       2.00000         -23.715011         -645.31829
     19       2.00000         -18.900928         -514.32042
     20       2.00000         -14.767394         -401.84125
     21       2.00000         -14.767173         -401.83522
     22       2.00000         -14.767173         -401.83522
     23       2.00000         -14.766696         -401.82223
     24       2.00000         -14.766696         -401.82223
     25       2.00000          -5.290744         -143.96848
     26       2.00000          -4.889178         -133.04130
     27       2.00000          -4.889038         -133.03749
     28       2.00000          -4.889038         -133.03749
     29       2.00000          -4.888709         -133.02855
     30       2.00000          -4.888709         -133.02855
     31       2.00000          -4.888292         -133.01720
     32       2.00000          -4.888292         -133.01720
     33       2.00000          -3.151817          -85.76531
     34       2.00000          -3.145724          -85.59949
     35       2.00000          -3.145724          -85.59949
     36       2.00000          -1.013273          -27.57256
     37       2.00000          -0.785867          -21.38454
     38       2.00000          -0.785867          -21.38454
     39       2.00000          -0.774437          -21.07350
     40       2.00000          -0.774437          -21.07350
     41       2.00000          -0.761711          -20.72722
     42       2.00000          -0.491133          -13.36440
     43       2.00000          -0.396530          -10.79014
     44       2.00000          -0.396530          -10.79014
     45       2.00000          -0.322099           -8.76476
     46       0.00000          -0.109773           -2.98707
     47       0.00000          -0.109771           -2.98703
     48       0.00000          -0.018119           -0.49303
     49       0.00000           0.109059            2.96763
     50       0.00000           0.201688            5.48820
     51       0.00000           0.201701            5.48857
     52       0.00000           0.212182            5.77376
     53       0.00000           0.252261            6.86437
     54       0.00000           0.252262            6.86439
     55       0.00000           0.266006            7.23840
     56       0.00000           0.266007            7.23843
     57       0.00000           0.324020            8.81704

  Highest occupied state (VBM) at     -8.76476486 eV
  | Occupation number:      2.00000000

  Lowest unoccupied state (CBM) at    -2.98707342 eV
  | Occupation number:      0.00000000

  Overall HOMO-LUMO gap:      5.77769144 eV.
  Calculating total energy contributions from superposition of free atom densities.

  Total energy components:
  | Sum of eigenvalues            :      -13774.85538729 Ha     -374832.88637548 eV
  | XC energy correction          :        -395.22775582 Ha      -10754.69442867 eV
  | XC potential correction       :         520.31506899 Ha       14158.49340352 eV
  | Free-atom electrostatic energy:       -8107.30926540 Ha     -220611.10968113 eV
  | Hartree energy correction     :           0.00000000 Ha           0.00000000 eV
  | Entropy correction            :          -0.00000000 Ha          -0.00000000 eV
  | ---------------------------
  | Total energy                  :      -21757.07733951 Ha     -592040.19708177 eV
  | Total energy, T -> 0          :      -21757.07733951 Ha     -592040.19708177 eV  <-- do not rely on this value for anything but (periodic) metals
  | Electronic free energy        :      -21757.07733951 Ha     -592040.19708177 eV

  Derived energy quantities:
  | Kinetic energy                :       24676.41143132 Ha      671479.31953776 eV
  | Electrostatic energy          :      -46038.26101501 Ha    -1252764.82219086 eV
  | Energy correction for multipole
  | error in Hartree potential    :           0.00000000 Ha           0.00000000 eV
  | Sum of eigenvalues per atom                           :     -187416.44318774 eV
  | Total energy (T->0) per atom                          :     -296020.09854088 eV  <-- do not rely on this value for anything but (periodic) metals
  | Electronic free energy per atom                       :     -296020.09854088 eV
  Initialize hartree_potential_storage
  Max. number of atoms included in rho_multipole:            2

  End scf initialization - timings             :  max(cpu_time)    wall_clock(cpu1)
  | Time for scf. initialization               :        2.176 s           2.000 s
  | Boundary condition initialization          :        0.000 s           0.000 s
  | Relaxation initialization                  :        0.001 s           0.004 s
  | Integration                                :        1.352 s           1.360 s
  | Solution of K.-S. eqns.                    :        0.256 s           0.258 s
  | Grid partitioning                          :        0.476 s           0.202 s
  | Preloading free-atom quantities on grid    :        0.009 s           0.050 s
  | Free-atom superposition energy             :        0.052 s           0.045 s
  | Total energy evaluation                    :        0.000 s           0.000 s

  Partial memory accounting:
  | Current value for overall tracked memory usage on task 0  :           0.122 MB
  | Peak value for overall tracked memory usage on task 0     :           0.490 MB after allocating wave_s
  | Largest tracked array allocation on task 0 so far         :           0.092 MB  when allocating H_times_psi
  Note:  These values currently only include a subset of arrays which are explicitly tracked.
  The "true" memory usage will be greater.
------------------------------------------------------------

------------------------------------------------------------
          Begin self-consistency iteration #    1

  Date     :  20230309, Time     :  184202.212
------------------------------------------------------------
  Evaluating new KS density.
  Integration grid: deviation in total charge (<rho> - N_e) =   4.263256E-14
  Pulay mixing of updated and previous charge densities.

  Evaluating partitioned Hartree potential by multipole expansion.
  | Analytical far-field extrapolation by fixed multipoles:
  | Hartree multipole sum: apparent total charge =  -0.403915E-03
  Summing up the Hartree potential.
  Time summed over all CPUs for potential: real work        0.145 s, elapsed        0.303 s
  | RMS charge density error from multipole expansion :   0.364163E-02

  Integrating Hamiltonian matrix: batch-based integration.
  Time summed over all CPUs for integration: real work        2.198 s, elapsed        3.116 s => Consider using load balancing!

  Updating Kohn-Sham eigenvalues, eigenvectors, occupation numbers, and Fermi level.
  Solving generalized eigenproblem
  Updating Kohn-Sham eigenvalues and eigenfunctions.
  Solving real generalised eigenvalue problem by standard LAPACK (fast)

  Obtaining occupation numbers and chemical potential using ELSI.
  | Chemical potential (Fermi level):    -1.77597585 eV
  Writing Kohn-Sham eigenvalues.

  State    Occupation    Eigenvalue [Ha]    Eigenvalue [eV]
      1       2.00000       -3581.990296       -97470.91523
      2       2.00000        -591.133722       -16085.56701
      3       2.00000        -505.882847       -13765.77266
      4       2.00000        -505.882847       -13765.77266
      5       2.00000        -505.882273       -13765.75704
      6       2.00000        -139.800120        -3804.15483
      7       2.00000        -115.951495        -3155.20071
      8       2.00000        -115.951495        -3155.20071
      9       2.00000        -115.950047        -3155.16132
     10       2.00000         -91.751043        -2496.67290
     11       2.00000         -91.751043        -2496.67290
     12       2.00000         -91.750095        -2496.64711
     13       2.00000         -91.750095        -2496.64711
     14       2.00000         -91.749766        -2496.63815
     15       2.00000         -31.510178         -857.43558
     16       2.00000         -23.754190         -646.38439
     17       2.00000         -23.754190         -646.38439
     18       2.00000         -23.750332         -646.27942
     19       2.00000         -18.257992         -496.82524
     20       2.00000         -14.806508         -402.90559
     21       2.00000         -14.806508         -402.90559
     22       2.00000         -14.803573         -402.82571
     23       2.00000         -14.803572         -402.82570
     24       2.00000         -14.802575         -402.79857
     25       2.00000          -5.325146         -144.90460
     26       2.00000          -4.928524         -134.11196
     27       2.00000          -4.928524         -134.11196
     28       2.00000          -4.926086         -134.04562
     29       2.00000          -4.926086         -134.04561
     30       2.00000          -4.924615         -134.00560
     31       2.00000          -4.924615         -134.00559
     32       2.00000          -4.924136         -133.99256
     33       2.00000          -3.184521          -86.65523
     34       2.00000          -3.184521          -86.65523
     35       2.00000          -3.173956          -86.36773
     36       2.00000          -0.842217          -22.91789
     37       2.00000          -0.815409          -22.18840
     38       2.00000          -0.815409          -22.18840
     39       2.00000          -0.807256          -21.96655
     40       2.00000          -0.807256          -21.96655
     41       2.00000          -0.627904          -17.08612
     42       2.00000          -0.417782          -11.36842
     43       2.00000          -0.171059           -4.65475
     44       2.00000          -0.171059           -4.65474
     45       2.00000          -0.137294           -3.73596
     46       0.00000          -0.037529           -1.02121
     47       0.00000          -0.037528           -1.02118
     48       0.00000           0.039974            1.08775
     49       0.00000           0.108791            2.96035
     50       0.00000           0.192467            5.23730
     51       0.00000           0.192483            5.23772
     52       0.00000           0.235316            6.40327
     53       0.00000           0.235316            6.40329
     54       0.00000           0.299313            8.14472
     55       0.00000           0.318563            8.66854
     56       0.00000           0.318563            8.66855
     57       0.00000           0.372034           10.12357

  Highest occupied state (VBM) at     -3.73595638 eV
  | Occupation number:      2.00000000

  Lowest unoccupied state (CBM) at    -1.02121169 eV
  | Occupation number:      0.00000000

  Overall HOMO-LUMO gap:      2.71474469 eV.

  Total energy components:
  | Sum of eigenvalues            :      -13774.38034964 Ha     -374819.95994337 eV
  | XC energy correction          :        -395.57526719 Ha      -10764.15069431 eV
  | XC potential correction       :         520.77113017 Ha       14170.90345943 eV
  | Free-atom electrostatic energy:       -8107.30926540 Ha     -220611.10968113 eV
  | Hartree energy correction     :          -0.76701740 Ha         -20.87160548 eV
  | Entropy correction            :           0.00000000 Ha           0.00000000 eV
  | ---------------------------
  | Total energy                  :      -21757.26076947 Ha     -592045.18846486 eV
  | Total energy, T -> 0          :      -21757.26076947 Ha     -592045.18846486 eV  <-- do not rely on this value for anything but (periodic) metals
  | Electronic free energy        :      -21757.26076947 Ha     -592045.18846486 eV

  Derived energy quantities:
  | Kinetic energy                :       24677.66426515 Ha      671513.41088099 eV
  | Electrostatic energy          :      -46039.34976743 Ha    -1252794.44865154 eV
  | Energy correction for multipole
  | error in Hartree potential    :           0.01452677 Ha           0.39529346 eV
  | Sum of eigenvalues per atom                           :     -187409.97997168 eV
  | Total energy (T->0) per atom                          :     -296022.59423243 eV  <-- do not rely on this value for anything but (periodic) metals
  | Electronic free energy per atom                       :     -296022.59423243 eV

  Self-consistency convergence accuracy:
  | Change of charge density      :  0.4102E+00
  | Change of sum of eigenvalues  :  0.1293E+02 eV
  | Change of total energy        : -0.4991E+01 eV

  End self-consistency iteration #     1       :  max(cpu_time)    wall_clock(cpu1)
  | Time for this iteration                    :        1.838 s           1.667 s
  | Charge density update                      :        0.552 s           0.422 s
  | Density mixing                             :        0.002 s           0.007 s
  | Hartree multipole update                   :        0.068 s           0.037 s
  | Hartree multipole summation                :        0.119 s           0.102 s
  | Integration                                :        0.854 s           0.781 s
  | Solution of K.-S. eqns.                    :        0.343 s           0.315 s
  | Total energy evaluation                    :        0.000 s           0.000 s

  Partial memory accounting:
  | Current value for overall tracked memory usage on task 0  :           0.122 MB
  | Peak value for overall tracked memory usage on task 0     :           0.533 MB after allocating wave_s
  | Largest tracked array allocation on task 0 so far         :           0.275 MB  when allocating gradient_basis_wave
  Note:  These values currently only include a subset of arrays which are explicitly tracked.
  The "true" memory usage will be greater.
------------------------------------------------------------

------------------------------------------------------------
          Begin self-consistency iteration #    2

  Date     :  20230309, Time     :  184203.880
------------------------------------------------------------
  Evaluating new KS density.
  Integration grid: deviation in total charge (<rho> - N_e) =  -1.278977E-13
  Pulay mixing of updated and previous charge densities.

  Evaluating partitioned Hartree potential by multipole expansion.
  | Analytical far-field extrapolation by fixed multipoles:
  | Hartree multipole sum: apparent total charge =  -0.350990E-03
  Summing up the Hartree potential.
  Time summed over all CPUs for potential: real work        0.189 s, elapsed        0.451 s
  | RMS charge density error from multipole expansion :   0.271553E-02

  Integrating Hamiltonian matrix: batch-based integration.
  Time summed over all CPUs for integration: real work        1.707 s, elapsed        1.785 s

  Updating Kohn-Sham eigenvalues, eigenvectors, occupation numbers, and Fermi level.
  Solving generalized eigenproblem
  Updating Kohn-Sham eigenvalues and eigenfunctions.
  Solving real generalised eigenvalue problem by standard LAPACK (fast)

  Obtaining occupation numbers and chemical potential using ELSI.
  | Chemical potential (Fermi level):    -5.56122443 eV
  Highest occupied state (VBM) at     -7.12998113 eV
  | Occupation number:      2.00000000

  Lowest unoccupied state (CBM) at    -2.77731974 eV
  | Occupation number:      0.00000000

  Overall HOMO-LUMO gap:      4.35266139 eV.

  Checking to see if s.c.f. parameters should be adjusted.

  Total energy components:
  | Sum of eigenvalues            :      -13772.92844106 Ha     -374780.45150065 eV
  | XC energy correction          :        -395.36761822 Ha      -10758.50027811 eV
  | XC potential correction       :         520.49903601 Ha       14163.49940086 eV
  | Free-atom electrostatic energy:       -8107.30926540 Ha     -220611.10968113 eV
  | Hartree energy correction     :          -1.85345129 Ha         -50.43497573 eV
  | Entropy correction            :           0.00000000 Ha           0.00000000 eV
  | ---------------------------
  | Total energy                  :      -21756.95973995 Ha     -592036.99703476 eV
  | Total energy, T -> 0          :      -21756.95973995 Ha     -592036.99703476 eV  <-- do not rely on this value for anything but (periodic) metals
  | Electronic free energy        :      -21756.95973995 Ha     -592036.99703476 eV

  Derived energy quantities:
  | Kinetic energy                :       24677.50191057 Ha      671508.99298811 eV
  | Electrostatic energy          :      -46039.09403231 Ha    -1252787.48974476 eV
  | Energy correction for multipole
  | error in Hartree potential    :           0.00760400 Ha           0.20691529 eV
  | Sum of eigenvalues per atom                           :     -187390.22575032 eV
  | Total energy (T->0) per atom                          :     -296018.49851738 eV  <-- do not rely on this value for anything but (periodic) metals
  | Electronic free energy per atom                       :     -296018.49851738 eV

  Self-consistency convergence accuracy:
  | Change of charge density      :  0.9321E+00
  | Change of sum of eigenvalues  :  0.3951E+02 eV
  | Change of total energy        :  0.8191E+01 eV

  End self-consistency iteration #     2       :  max(cpu_time)    wall_clock(cpu1)
  | Time for this iteration                    :        1.285 s           1.279 s
  | Charge density update                      :        0.745 s           0.625 s
  | Density mixing                             :        0.004 s           0.010 s
  | Hartree multipole update                   :        0.031 s           0.038 s
  | Hartree multipole summation                :        0.138 s           0.149 s
  | Integration                                :        0.488 s           0.447 s
  | Solution of K.-S. eqns.                    :        0.007 s           0.007 s
  | Total energy evaluation                    :        0.000 s           0.000 s

  Partial memory accounting:
  | Current value for overall tracked memory usage on task 0  :           0.123 MB
  | Peak value for overall tracked memory usage on task 0     :           0.534 MB after allocating wave_s
  | Largest tracked array allocation on task 0 so far         :           0.275 MB  when allocating gradient_basis_wave
  Note:  These values currently only include a subset of arrays which are explicitly tracked.
  The "true" memory usage will be greater.
------------------------------------------------------------

------------------------------------------------------------
          Begin self-consistency iteration #    3

  Date     :  20230309, Time     :  184205.161
------------------------------------------------------------
  Evaluating new KS density.
  Integration grid: deviation in total charge (<rho> - N_e) =   1.421085E-14
  Pulay mixing of updated and previous charge densities.

  Evaluating partitioned Hartree potential by multipole expansion.
  | Analytical far-field extrapolation by fixed multipoles:
  | Hartree multipole sum: apparent total charge =  -0.399791E-03
  Summing up the Hartree potential.
  Time summed over all CPUs for potential: real work        0.157 s, elapsed        0.342 s
  | RMS charge density error from multipole expansion :   0.386375E-02

  Integrating Hamiltonian matrix: batch-based integration.
  Time summed over all CPUs for integration: real work        1.678 s, elapsed        2.311 s => Consider using load balancing!

  Updating Kohn-Sham eigenvalues, eigenvectors, occupation numbers, and Fermi level.
  Solving generalized eigenproblem
  Updating Kohn-Sham eigenvalues and eigenfunctions.
  Solving real generalised eigenvalue problem by standard LAPACK (fast)

  Obtaining occupation numbers and chemical potential using ELSI.
  | Chemical potential (Fermi level):    -5.34375120 eV
  Highest occupied state (VBM) at     -6.40814136 eV
  | Occupation number:      2.00000000

  Lowest unoccupied state (CBM) at    -2.72307298 eV
  | Occupation number:      0.00000000

  Overall HOMO-LUMO gap:      3.68506838 eV.

  Total energy components:
  | Sum of eigenvalues            :      -13773.06861550 Ha     -374784.26584129 eV
  | XC energy correction          :        -395.39947347 Ha      -10759.36710361 eV
  | XC potential correction       :         520.54065613 Ha       14164.63194173 eV
  | Free-atom electrostatic energy:       -8107.30926540 Ha     -220611.10968113 eV
  | Hartree energy correction     :          -1.69855369 Ha         -46.21999752 eV
  | Entropy correction            :           0.00000000 Ha           0.00000000 eV
  | ---------------------------
  | Total energy                  :      -21756.93525193 Ha     -592036.33068182 eV
  | Total energy, T -> 0          :      -21756.93525193 Ha     -592036.33068182 eV  <-- do not rely on this value for anything but (periodic) metals
  | Electronic free energy        :      -21756.93525193 Ha     -592036.33068182 eV

  Derived energy quantities:
  | Kinetic energy                :       24677.48366366 Ha      671508.49646421 eV
  | Electrostatic energy          :      -46039.01944212 Ha    -1252785.46004243 eV
  | Energy correction for multipole
  | error in Hartree potential    :           0.00976838 Ha           0.26581108 eV
  | Sum of eigenvalues per atom                           :     -187392.13292065 eV
  | Total energy (T->0) per atom                          :     -296018.16534091 eV  <-- do not rely on this value for anything but (periodic) metals
  | Electronic free energy per atom                       :     -296018.16534091 eV

  Self-consistency convergence accuracy:
  | Change of charge density      :  0.1491E+00
  | Change of sum of eigenvalues  : -0.3814E+01 eV
  | Change of total energy        :  0.6664E+00 eV

  End self-consistency iteration #     3       :  max(cpu_time)    wall_clock(cpu1)
  | Time for this iteration                    :        1.583 s           1.505 s
  | Charge density update                      :        0.747 s           0.746 s
  | Density mixing                             :        0.017 s           0.025 s
  | Hartree multipole update                   :        0.038 s           0.040 s
  | Hartree multipole summation                :        0.095 s           0.100 s
  | Integration                                :        0.699 s           0.580 s
  | Solution of K.-S. eqns.                    :        0.024 s           0.012 s
  | Total energy evaluation                    :        0.000 s           0.002 s

  Partial memory accounting:
  | Current value for overall tracked memory usage on task 0  :           0.123 MB
  | Peak value for overall tracked memory usage on task 0     :           0.534 MB after allocating wave_s
  | Largest tracked array allocation on task 0 so far         :           0.275 MB  when allocating gradient_basis_wave
  Note:  These values currently only include a subset of arrays which are explicitly tracked.
  The "true" memory usage will be greater.
------------------------------------------------------------

------------------------------------------------------------
          Begin self-consistency iteration #    4

  Date     :  20230309, Time     :  184206.669
------------------------------------------------------------
  Evaluating new KS density.
  Integration grid: deviation in total charge (<rho> - N_e) =   5.684342E-14
  Pulay mixing of updated and previous charge densities.

  Evaluating partitioned Hartree potential by multipole expansion.
  | Analytical far-field extrapolation by fixed multipoles:
  | Hartree multipole sum: apparent total charge =  -0.472718E-03
  Summing up the Hartree potential.
  Time summed over all CPUs for potential: real work        0.209 s, elapsed        0.476 s
  | RMS charge density error from multipole expansion :   0.666086E-02

  Integrating Hamiltonian matrix: batch-based integration.
  Time summed over all CPUs for integration: real work        1.956 s, elapsed        2.576 s => Consider using load balancing!

  Updating Kohn-Sham eigenvalues, eigenvectors, occupation numbers, and Fermi level.
  Solving generalized eigenproblem
  Updating Kohn-Sham eigenvalues and eigenfunctions.
  Solving real generalised eigenvalue problem by standard LAPACK (fast)

  Obtaining occupation numbers and chemical potential using ELSI.
  | Chemical potential (Fermi level):    -5.08396002 eV
  Highest occupied state (VBM) at     -5.80744256 eV
  | Occupation number:      2.00000000

  Lowest unoccupied state (CBM) at    -2.64009659 eV
  | Occupation number:      0.00000000

  Overall HOMO-LUMO gap:      3.16734597 eV.

  Total energy components:
  | Sum of eigenvalues            :      -13773.38248578 Ha     -374792.80668618 eV
  | XC energy correction          :        -395.39893784 Ha      -10759.35252846 eV
  | XC potential correction       :         520.53935251 Ha       14164.59646856 eV
  | Free-atom electrostatic energy:       -8107.30926540 Ha     -220611.10968113 eV
  | Hartree energy correction     :          -1.38653268 Ha         -37.72947386 eV
  | Entropy correction            :           0.00000000 Ha           0.00000000 eV
  | ---------------------------
  | Total energy                  :      -21756.93786919 Ha     -592036.40190106 eV
  | Total energy, T -> 0          :      -21756.93786919 Ha     -592036.40190106 eV  <-- do not rely on this value for anything but (periodic) metals
  | Electronic free energy        :      -21756.93786919 Ha     -592036.40190106 eV

  Derived energy quantities:
  | Kinetic energy                :       24677.08010613 Ha      671497.51510534 eV
  | Electrostatic energy          :      -46038.61903748 Ha    -1252774.56447795 eV
  | Energy correction for multipole
  | error in Hartree potential    :           0.00763683 Ha           0.20780875 eV
  | Sum of eigenvalues per atom                           :     -187396.40334309 eV
  | Total energy (T->0) per atom                          :     -296018.20095053 eV  <-- do not rely on this value for anything but (periodic) metals
  | Electronic free energy per atom                       :     -296018.20095053 eV

  Self-consistency convergence accuracy:
  | Change of charge density      :  0.5222E-01
  | Change of sum of eigenvalues  : -0.8541E+01 eV
  | Change of total energy        : -0.7122E-01 eV

  End self-consistency iteration #     4       :  max(cpu_time)    wall_clock(cpu1)
  | Time for this iteration                    :        1.610 s           1.475 s
  | Charge density update                      :        0.536 s           0.432 s
  | Density mixing                             :        0.010 s           0.025 s
  | Hartree multipole update                   :        0.041 s           0.037 s
  | Hartree multipole summation                :        0.131 s           0.218 s
  | Integration                                :        0.770 s           0.659 s
  | Solution of K.-S. eqns.                    :        0.128 s           0.101 s
  | Total energy evaluation                    :        0.000 s           0.002 s

  Partial memory accounting:
  | Current value for overall tracked memory usage on task 0  :           0.123 MB
  | Peak value for overall tracked memory usage on task 0     :           0.534 MB after allocating wave_s
  | Largest tracked array allocation on task 0 so far         :           0.275 MB  when allocating gradient_basis_wave
  Note:  These values currently only include a subset of arrays which are explicitly tracked.
  The "true" memory usage will be greater.
------------------------------------------------------------

------------------------------------------------------------
          Begin self-consistency iteration #    5

  Date     :  20230309, Time     :  184208.146
------------------------------------------------------------
  Evaluating new KS density.
  Integration grid: deviation in total charge (<rho> - N_e) =   1.421085E-14
  Pulay mixing of updated and previous charge densities.

  Evaluating partitioned Hartree potential by multipole expansion.
  | Analytical far-field extrapolation by fixed multipoles:
  | Hartree multipole sum: apparent total charge =  -0.484195E-03
  Summing up the Hartree potential.
  Time summed over all CPUs for potential: real work        0.322 s, elapsed        0.585 s
  | RMS charge density error from multipole expansion :   0.664450E-02

  Integrating Hamiltonian matrix: batch-based integration.
  Time summed over all CPUs for integration: real work        1.472 s, elapsed        1.672 s

  Updating Kohn-Sham eigenvalues, eigenvectors, occupation numbers, and Fermi level.
  Solving generalized eigenproblem
  Updating Kohn-Sham eigenvalues and eigenfunctions.
  Solving real generalised eigenvalue problem by standard LAPACK (fast)

  Obtaining occupation numbers and chemical potential using ELSI.
  | Chemical potential (Fermi level):    -5.11301392 eV
  Highest occupied state (VBM) at     -6.03443295 eV
  | Occupation number:      2.00000000

  Lowest unoccupied state (CBM) at    -2.65537790 eV
  | Occupation number:      0.00000000

  Overall HOMO-LUMO gap:      3.37905505 eV.

  Total energy components:
  | Sum of eigenvalues            :      -13772.87253788 Ha     -374778.93029782 eV
  | XC energy correction          :        -395.39410131 Ha      -10759.22091972 eV
  | XC potential correction       :         520.53316071 Ha       14164.42798121 eV
  | Free-atom electrostatic energy:       -8107.30926540 Ha     -220611.10968113 eV
  | Hartree energy correction     :          -1.88921326 Ha         -51.40810836 eV
  | Entropy correction            :           0.00000000 Ha           0.00000000 eV
  | ---------------------------
  | Total energy                  :      -21756.93195713 Ha     -592036.24102582 eV
  | Total energy, T -> 0          :      -21756.93195713 Ha     -592036.24102582 eV  <-- do not rely on this value for anything but (periodic) metals
  | Electronic free energy        :      -21756.93195713 Ha     -592036.24102582 eV

  Derived energy quantities:
  | Kinetic energy                :       24677.17773568 Ha      671500.17174049 eV
  | Electrostatic energy          :      -46038.71559150 Ha    -1252777.19184658 eV
  | Energy correction for multipole
  | error in Hartree potential    :           0.00719642 Ha           0.19582452 eV
  | Sum of eigenvalues per atom                           :     -187389.46514891 eV
  | Total energy (T->0) per atom                          :     -296018.12051291 eV  <-- do not rely on this value for anything but (periodic) metals
  | Electronic free energy per atom                       :     -296018.12051291 eV

  Self-consistency convergence accuracy:
  | Change of charge density      :  0.1045E+00
  | Change of sum of eigenvalues  :  0.1388E+02 eV
  | Change of total energy        :  0.1609E+00 eV

  End self-consistency iteration #     5       :  max(cpu_time)    wall_clock(cpu1)
  | Time for this iteration                    :        1.361 s           1.244 s
  | Charge density update                      :        0.722 s           0.538 s
  | Density mixing                             :        0.020 s           0.026 s
  | Hartree multipole update                   :        0.076 s           0.056 s
  | Hartree multipole summation                :        0.104 s           0.182 s
  | Integration                                :        0.521 s           0.419 s
  | Solution of K.-S. eqns.                    :        0.023 s           0.021 s
  | Total energy evaluation                    :        0.000 s           0.002 s

  Partial memory accounting:
  | Current value for overall tracked memory usage on task 0  :           0.123 MB
  | Peak value for overall tracked memory usage on task 0     :           0.534 MB after allocating wave_s
  | Largest tracked array allocation on task 0 so far         :           0.275 MB  when allocating gradient_basis_wave
  Note:  These values currently only include a subset of arrays which are explicitly tracked.
  The "true" memory usage will be greater.
------------------------------------------------------------

------------------------------------------------------------
          Begin self-consistency iteration #    6

  Date     :  20230309, Time     :  184209.394
------------------------------------------------------------
  Evaluating new KS density.
  Integration grid: deviation in total charge (<rho> - N_e) =   0.000000E+00
  Pulay mixing of updated and previous charge densities.

  Evaluating partitioned Hartree potential by multipole expansion.
  | Analytical far-field extrapolation by fixed multipoles:
  | Hartree multipole sum: apparent total charge =  -0.478446E-03
  Summing up the Hartree potential.
  Time summed over all CPUs for potential: real work        0.261 s, elapsed        0.372 s
  | RMS charge density error from multipole expansion :   0.637645E-02

  Integrating Hamiltonian matrix: batch-based integration.
  Time summed over all CPUs for integration: real work        1.771 s, elapsed        2.927 s => Consider using load balancing!

  Updating Kohn-Sham eigenvalues, eigenvectors, occupation numbers, and Fermi level.
  Solving generalized eigenproblem
  Updating Kohn-Sham eigenvalues and eigenfunctions.
  Solving real generalised eigenvalue problem by standard LAPACK (fast)

  Obtaining occupation numbers and chemical potential using ELSI.
  | Chemical potential (Fermi level):    -5.14501003 eV
  Highest occupied state (VBM) at     -6.11730556 eV
  | Occupation number:      2.00000000

  Lowest unoccupied state (CBM) at    -2.66451505 eV
  | Occupation number:      0.00000000

  Overall HOMO-LUMO gap:      3.45279051 eV.

  Total energy components:
  | Sum of eigenvalues            :      -13772.84249248 Ha     -374778.11272073 eV
  | XC energy correction          :        -395.39262185 Ha      -10759.18066158 eV
  | XC potential correction       :         520.53128583 Ha       14164.37696292 eV
  | Free-atom electrostatic energy:       -8107.30926540 Ha     -220611.10968113 eV
  | Hartree energy correction     :          -1.91855786 Ha         -52.20661561 eV
  | Entropy correction            :           0.00000000 Ha           0.00000000 eV
  | ---------------------------
  | Total energy                  :      -21756.93165176 Ha     -592036.23271613 eV
  | Total energy, T -> 0          :      -21756.93165176 Ha     -592036.23271613 eV  <-- do not rely on this value for anything but (periodic) metals
  | Electronic free energy        :      -21756.93165176 Ha     -592036.23271613 eV

  Derived energy quantities:
  | Kinetic energy                :       24677.21120369 Ha      671501.08245127 eV
  | Electrostatic energy          :      -46038.75023360 Ha    -1252778.13450582 eV
  | Energy correction for multipole
  | error in Hartree potential    :           0.00743612 Ha           0.20234704 eV
  | Sum of eigenvalues per atom                           :     -187389.05636037 eV
  | Total energy (T->0) per atom                          :     -296018.11635806 eV  <-- do not rely on this value for anything but (periodic) metals
  | Electronic free energy per atom                       :     -296018.11635806 eV

  Self-consistency convergence accuracy:
  | Change of charge density      :  0.1601E-01
  | Change of sum of eigenvalues  :  0.8176E+00 eV
  | Change of total energy        :  0.8310E-02 eV

  End self-consistency iteration #     6       :  max(cpu_time)    wall_clock(cpu1)
  | Time for this iteration                    :        1.870 s           1.710 s
  | Charge density update                      :        0.846 s           0.683 s
  | Density mixing                             :        0.018 s           0.031 s
  | Hartree multipole update                   :        0.083 s           0.063 s
  | Hartree multipole summation                :        0.132 s           0.114 s
  | Integration                                :        0.754 s           0.733 s
  | Solution of K.-S. eqns.                    :        0.111 s           0.085 s
  | Total energy evaluation                    :        0.000 s           0.001 s

  Partial memory accounting:
  | Current value for overall tracked memory usage on task 0  :           0.123 MB
  | Peak value for overall tracked memory usage on task 0     :           0.534 MB after allocating wave_s
  | Largest tracked array allocation on task 0 so far         :           0.275 MB  when allocating gradient_basis_wave
  Note:  These values currently only include a subset of arrays which are explicitly tracked.
  The "true" memory usage will be greater.
------------------------------------------------------------

------------------------------------------------------------
          Begin self-consistency iteration #    7

  Date     :  20230309, Time     :  184211.107
------------------------------------------------------------
  Evaluating new KS density.
  Integration grid: deviation in total charge (<rho> - N_e) =   5.684342E-14
  Pulay mixing of updated and previous charge densities.

  Evaluating partitioned Hartree potential by multipole expansion.
  | Analytical far-field extrapolation by fixed multipoles:
  | Hartree multipole sum: apparent total charge =  -0.479456E-03
  Summing up the Hartree potential.
  Time summed over all CPUs for potential: real work        0.151 s, elapsed        0.259 s
  | RMS charge density error from multipole expansion :   0.640581E-02

  Integrating Hamiltonian matrix: batch-based integration.
  Time summed over all CPUs for integration: real work        1.952 s, elapsed        2.593 s => Consider using load balancing!

  Updating Kohn-Sham eigenvalues, eigenvectors, occupation numbers, and Fermi level.
  Solving generalized eigenproblem
  Updating Kohn-Sham eigenvalues and eigenfunctions.
  Solving real generalised eigenvalue problem by standard LAPACK (fast)

  Obtaining occupation numbers and chemical potential using ELSI.
  | Chemical potential (Fermi level):    -5.14387223 eV
  Highest occupied state (VBM) at     -6.11206444 eV
  | Occupation number:      2.00000000

  Lowest unoccupied state (CBM) at    -2.66234754 eV
  | Occupation number:      0.00000000

  Overall HOMO-LUMO gap:      3.44971691 eV.

  Total energy components:
  | Sum of eigenvalues            :      -13772.84728791 Ha     -374778.24321119 eV
  | XC energy correction          :        -395.39303368 Ha      -10759.19186803 eV
  | XC potential correction       :         520.53182651 Ha       14164.39167577 eV
  | Free-atom electrostatic energy:       -8107.30926540 Ha     -220611.10968113 eV
  | Hartree energy correction     :          -1.91389011 Ha         -52.07959976 eV
  | Entropy correction            :           0.00000000 Ha           0.00000000 eV
  | ---------------------------
  | Total energy                  :      -21756.93165059 Ha     -592036.23268433 eV
  | Total energy, T -> 0          :      -21756.93165059 Ha     -592036.23268433 eV  <-- do not rely on this value for anything but (periodic) metals
  | Electronic free energy        :      -21756.93165059 Ha     -592036.23268433 eV

  Derived energy quantities:
  | Kinetic energy                :       24677.21245147 Ha      671501.11640525 eV
  | Electrostatic energy          :      -46038.75106838 Ha    -1252778.15722155 eV
  | Energy correction for multipole
  | error in Hartree potential    :           0.00754829 Ha           0.20539934 eV
  | Sum of eigenvalues per atom                           :     -187389.12160559 eV
  | Total energy (T->0) per atom                          :     -296018.11634216 eV  <-- do not rely on this value for anything but (periodic) metals
  | Electronic free energy per atom                       :     -296018.11634216 eV

  Self-consistency convergence accuracy:
  | Change of charge density      :  0.1868E-02
  | Change of sum of eigenvalues  : -0.1305E+00 eV
  | Change of total energy        :  0.3180E-04 eV

  End self-consistency iteration #     7       :  max(cpu_time)    wall_clock(cpu1)
  | Time for this iteration                    :        1.555 s           1.298 s
  | Charge density update                      :        0.470 s           0.405 s
  | Density mixing                             :        0.024 s           0.035 s
  | Hartree multipole update                   :        0.063 s           0.037 s
  | Hartree multipole summation                :        0.123 s           0.090 s
  | Integration                                :        0.788 s           0.650 s
  | Solution of K.-S. eqns.                    :        0.115 s           0.079 s
  | Total energy evaluation                    :        0.000 s           0.001 s

  Partial memory accounting:
  | Current value for overall tracked memory usage on task 0  :           0.123 MB
  | Peak value for overall tracked memory usage on task 0     :           0.534 MB after allocating wave_s
  | Largest tracked array allocation on task 0 so far         :           0.275 MB  when allocating gradient_basis_wave
  Note:  These values currently only include a subset of arrays which are explicitly tracked.
  The "true" memory usage will be greater.
------------------------------------------------------------

------------------------------------------------------------
          Begin self-consistency iteration #    8

  Date     :  20230309, Time     :  184212.407
------------------------------------------------------------
  Evaluating new KS density.
  Integration grid: deviation in total charge (<rho> - N_e) =  -7.105427E-14
  Pulay mixing of updated and previous charge densities.

  Evaluating partitioned Hartree potential by multipole expansion.
  | Analytical far-field extrapolation by fixed multipoles:
  | Hartree multipole sum: apparent total charge =  -0.479448E-03
  Summing up the Hartree potential.
  Time summed over all CPUs for potential: real work        0.203 s, elapsed        0.388 s
  | RMS charge density error from multipole expansion :   0.640408E-02

  Integrating Hamiltonian matrix: batch-based integration.
  Time summed over all CPUs for integration: real work        1.226 s, elapsed        1.426 s

  Updating Kohn-Sham eigenvalues, eigenvectors, occupation numbers, and Fermi level.
  Solving generalized eigenproblem
  Updating Kohn-Sham eigenvalues and eigenfunctions.
  Solving real generalised eigenvalue problem by standard LAPACK (fast)

  Obtaining occupation numbers and chemical potential using ELSI.
  | Chemical potential (Fermi level):    -5.14452844 eV
  Highest occupied state (VBM) at     -6.11409089 eV
  | Occupation number:      2.00000000

  Lowest unoccupied state (CBM) at    -2.66246045 eV
  | Occupation number:      0.00000000

  Overall HOMO-LUMO gap:      3.45163044 eV.

  Total energy components:
  | Sum of eigenvalues            :      -13772.84434889 Ha     -374778.16323619 eV
  | XC energy correction          :        -395.39304674 Ha      -10759.19222338 eV
  | XC potential correction       :         520.53184591 Ha       14164.39220363 eV
  | Free-atom electrostatic energy:       -8107.30926540 Ha     -220611.10968113 eV
  | Hartree energy correction     :          -1.91683508 Ha         -52.15973628 eV
  | Entropy correction            :           0.00000000 Ha           0.00000000 eV
  | ---------------------------
  | Total energy                  :      -21756.93165018 Ha     -592036.23267334 eV
  | Total energy, T -> 0          :      -21756.93165018 Ha     -592036.23267334 eV  <-- do not rely on this value for anything but (periodic) metals
  | Electronic free energy        :      -21756.93165018 Ha     -592036.23267334 eV

  Derived energy quantities:
  | Kinetic energy                :       24677.21426782 Ha      671501.16583051 eV
  | Electrostatic energy          :      -46038.75287127 Ha    -1252778.20628047 eV
  | Energy correction for multipole
  | error in Hartree potential    :           0.00755939 Ha           0.20570140 eV
  | Sum of eigenvalues per atom                           :     -187389.08161809 eV
  | Total energy (T->0) per atom                          :     -296018.11633667 eV  <-- do not rely on this value for anything but (periodic) metals
  | Electronic free energy per atom                       :     -296018.11633667 eV

  Self-consistency convergence accuracy:
  | Change of charge density      :  0.5373E-03
  | Change of sum of eigenvalues  :  0.7998E-01 eV
  | Change of total energy        :  0.1099E-04 eV

  End self-consistency iteration #     8       :  max(cpu_time)    wall_clock(cpu1)
  | Time for this iteration                    :        1.238 s           1.140 s
  | Charge density update                      :        0.676 s           0.573 s
  | Density mixing                             :        0.028 s           0.042 s
  | Hartree multipole update                   :        0.037 s           0.051 s
  | Hartree multipole summation                :        0.102 s           0.099 s
  | Integration                                :        0.552 s           0.367 s
  | Solution of K.-S. eqns.                    :        0.007 s           0.005 s
  | Total energy evaluation                    :        0.000 s           0.000 s

  Partial memory accounting:
  | Current value for overall tracked memory usage on task 0  :           0.123 MB
  | Peak value for overall tracked memory usage on task 0     :           0.534 MB after allocating wave_s
  | Largest tracked array allocation on task 0 so far         :           0.275 MB  when allocating gradient_basis_wave
  Note:  These values currently only include a subset of arrays which are explicitly tracked.
  The "true" memory usage will be greater.
------------------------------------------------------------

------------------------------------------------------------
          Begin self-consistency iteration #    9

  Date     :  20230309, Time     :  184213.548
------------------------------------------------------------
  Evaluating new KS density.
  Integration grid: deviation in total charge (<rho> - N_e) =  -4.263256E-14
  Pulay mixing of updated and previous charge densities.

[...]
  | Hartree multipole update                   :        0.036 s           0.011 s
  | Hartree multipole summation                :        0.320 s           0.102 s
  | Integration                                :        0.505 s           0.199 s
  | Solution of K.-S. eqns.                    :        0.032 s           0.012 s
  | Total energy evaluation                    :        0.005 s           0.002 s

  Partial memory accounting:
  | Current value for overall tracked memory usage on task 0  :           0.157 MB
  | Peak value for overall tracked memory usage on task 0     :           2.010 MB after allocating d_wave
  | Largest tracked array allocation on task 0 so far         :           0.550 MB  when allocating hessian_basis_wave
  Note:  These values currently only include a subset of arrays which are explicitly tracked.
  The "true" memory usage will be greater.
------------------------------------------------------------

------------------------------------------------------------
          Begin self-consistency iteration #    6

  Date     :  20230309, Time     :  184319.725
------------------------------------------------------------
  Evaluating new KS density and force components.
  Integration grid: deviation in total charge (<rho> - N_e) =   1.136868E-13
  Pulay mixing of updated and previous charge densities.

  Evaluating partitioned Hartree potential by multipole expansion.
  | Analytical far-field extrapolation by fixed multipoles:
  | Hartree multipole sum: apparent total charge =  -0.355691E-03
  Summing up the Hartree potential.
  Time summed over all CPUs for potential: real work        0.302 s, elapsed        0.414 s
  | RMS charge density error from multipole expansion :   0.552622E-02

  Integrating Hamiltonian matrix: batch-based integration.
  Time summed over all CPUs for integration: real work        0.599 s, elapsed        1.210 s => Consider using load balancing!

  Updating Kohn-Sham eigenvalues, eigenvectors, occupation numbers, and Fermi level.
  Solving generalized eigenproblem
  Updating Kohn-Sham eigenvalues and eigenfunctions.
  Solving real generalised eigenvalue problem by standard LAPACK (fast)

  Obtaining occupation numbers and chemical potential using ELSI.
  | Chemical potential (Fermi level):    -5.57888176 eV
  Highest occupied state (VBM) at     -6.18558751 eV
  | Occupation number:      2.00000000

  Lowest unoccupied state (CBM) at    -2.92239356 eV
  | Occupation number:      0.00000000

  Overall HOMO-LUMO gap:      3.26319396 eV.

  Total energy components:
  | Sum of eigenvalues            :      -13773.46250509 Ha     -374794.98412239 eV
  | XC energy correction          :        -395.32674389 Ha      -10757.38803116 eV
  | XC potential correction       :         520.44297831 Ha       14161.97399302 eV
  | Free-atom electrostatic energy:       -8107.62337751 Ha     -220619.65710668 eV
  | Hartree energy correction     :          -0.97304093 Ha         -26.47779087 eV
  | Entropy correction            :           0.00000000 Ha           0.00000000 eV
  | ---------------------------
  | Total energy                  :      -21756.94268912 Ha     -592036.53305808 eV
  | Total energy, T -> 0          :      -21756.94268912 Ha     -592036.53305808 eV  <-- do not rely on this value for anything but (periodic) metals
  | Electronic free energy        :      -21756.94268912 Ha     -592036.53305808 eV

  Derived energy quantities:
  | Kinetic energy                :       24676.76591821 Ha      671488.96561697 eV
  | Electrostatic energy          :      -46038.38186344 Ha    -1252768.11064389 eV
  | Energy correction for multipole
  | error in Hartree potential    :           0.00547286 Ha           0.14892402 eV
  | Sum of eigenvalues per atom                           :     -187397.49206119 eV
  | Total energy (T->0) per atom                          :     -296018.26652904 eV  <-- do not rely on this value for anything but (periodic) metals
  | Electronic free energy per atom                       :     -296018.26652904 eV

  atomic forces [eV/Ang]:
  -----------------------
  atom #    1
   Hellmann-Feynman              : -0.753613E+01 -0.592125E+00 -0.708510E+00
   Ionic forces                  :  0.000000E+00  0.000000E+00  0.000000E+00
   Multipole                     : -0.309752E+00 -0.243259E-01 -0.291233E-01
   Pulay + GGA                   :  0.788070E+01  0.619172E+00  0.740959E+00
   ----------------------------------------------------------------
   Total forces(   1)            :  0.348243E-01  0.272056E-02  0.332596E-02
  atom #    2
   Hellmann-Feynman              : -0.161260E+03 -0.126521E+02 -0.151718E+02
   Ionic forces                  :  0.000000E+00  0.000000E+00  0.000000E+00
   Multipole                     : -0.107629E+01 -0.845543E-01 -0.101222E+00
   Pulay + GGA                   :  0.162371E+03  0.127487E+02  0.152754E+02
   ----------------------------------------------------------------
   Total forces(   2)            :  0.342581E-01  0.120930E-01  0.238553E-02


  Self-consistency convergence accuracy:
  | Change of charge density      :  0.1345E-06
  | Change of sum of eigenvalues  : -0.2380E-04 eV
  | Change of total energy        :  0.3267E-08 eV
  | Change of forces              :  0.7338E-04 eV/A

  Writing Kohn-Sham eigenvalues.

  State    Occupation    Eigenvalue [Ha]    Eigenvalue [eV]
      1       2.00000       -3581.952836       -97469.89588
      2       2.00000        -591.097917       -16084.59270
      3       2.00000        -505.847010       -13764.79750
      4       2.00000        -505.847010       -13764.79750
      5       2.00000        -505.846067       -13764.77184
      6       2.00000        -139.766023        -3803.22700
      7       2.00000        -115.917651        -3154.27977
      8       2.00000        -115.917651        -3154.27977
      9       2.00000        -115.915482        -3154.22075
     10       2.00000         -91.717118        -2495.74977
     11       2.00000         -91.717118        -2495.74977
     12       2.00000         -91.715656        -2495.70997
     13       2.00000         -91.715655        -2495.70997
     14       2.00000         -91.715177        -2495.69696
     15       2.00000         -31.478394         -856.57070
     16       2.00000         -23.723027         -645.53641
     17       2.00000         -23.723027         -645.53641
     18       2.00000         -23.718063         -645.40132
     19       2.00000         -18.669271         -508.01672
     20       2.00000         -14.775734         -402.06818
     21       2.00000         -14.775734         -402.06818
     22       2.00000         -14.771961         -401.96550
     23       2.00000         -14.771961         -401.96550
     24       2.00000         -14.770764         -401.93295
     25       2.00000          -5.297814         -144.16085
     26       2.00000          -4.898102         -133.28414
     27       2.00000          -4.898102         -133.28414
     28       2.00000          -4.894990         -133.19945
     29       2.00000          -4.894990         -133.19945
     30       2.00000          -4.893183         -133.15028
     31       2.00000          -4.893183         -133.15028
     32       2.00000          -4.892598         -133.13436
     33       2.00000          -3.158802          -85.95536
     34       2.00000          -3.158801          -85.95535
     35       2.00000          -3.146142          -85.61089
     36       2.00000          -0.843929          -22.96447
     37       2.00000          -0.792783          -21.57272
     38       2.00000          -0.792783          -21.57272
     39       2.00000          -0.782239          -21.28582
     40       2.00000          -0.782239          -21.28581
     41       2.00000          -0.718381          -19.54815
     42       2.00000          -0.440588          -11.98902
     43       2.00000          -0.228988           -6.23109
     44       2.00000          -0.228988           -6.23108
     45       2.00000          -0.227316           -6.18559
     46       0.00000          -0.107396           -2.92239
     47       0.00000          -0.107395           -2.92236
     48       0.00000          -0.003738           -0.10172
     49       0.00000           0.116717            3.17602
     50       0.00000           0.200869            5.46591
     51       0.00000           0.200882            5.46628
     52       0.00000           0.246299            6.70215
     53       0.00000           0.246300            6.70217
     54       0.00000           0.257240            6.99986
     55       0.00000           0.292904            7.97033
     56       0.00000           0.292904            7.97033
     57       0.00000           0.341595            9.29526

  Highest occupied state (VBM) at     -6.18558751 eV
  | Occupation number:      2.00000000

  Lowest unoccupied state (CBM) at    -2.92239356 eV
  | Occupation number:      0.00000000

  Overall HOMO-LUMO gap:      3.26319396 eV.

  Self-consistency cycle converged.

  End self-consistency iteration #     6       :  max(cpu_time)    wall_clock(cpu1)
  | Time for this iteration                    :        4.196 s           1.386 s
  | Charge density & force component update    :        2.848 s           0.935 s
  | Density mixing                             :        0.042 s           0.018 s
  | Hartree multipole update                   :        0.048 s           0.016 s
  | Hartree multipole summation                :        0.342 s           0.107 s
  | Integration                                :        0.914 s           0.304 s
  | Solution of K.-S. eqns.                    :        0.012 s           0.004 s
  | Total energy evaluation                    :        0.003 s           0.001 s

  Partial memory accounting:
  | Current value for overall tracked memory usage on task 0  :           0.157 MB
  | Peak value for overall tracked memory usage on task 0     :           2.010 MB after allocating d_wave
  | Largest tracked array allocation on task 0 so far         :           0.550 MB  when allocating hessian_basis_wave
  Note:  These values currently only include a subset of arrays which are explicitly tracked.
  The "true" memory usage will be greater.
------------------------------------------------------------
  ------------------------------------------------------------
  Computing monopole / dipole moments
  | Total electronic charge [e]         :          0.900000000000000E+02
  | Total ionic charge [e]              :          0.900000000000000E+02
  | Total charge [e]                    :          0.000000000000000E+00
  | Total dipole moment [eAng]          :          0.943755102213847E+00         0.741478281424424E-01         0.887287463479455E-01
  | Absolute dipole moment              :          0.950812486140873E+00 eAng              /                   0.456623525090591E+01 Debye  .
  Removing unitary transformations (pure translations, rotations) from forces on atoms.
  Atomic forces before filtering:
  | Net force on center of mass :   0.690824E-01  0.148135E-01  0.571149E-02 eV/A
  | Net torque on center of mass:  -0.915771E-03  0.850688E-03  0.902946E-02 eV
  Atomic forces after filtering:
  | Net force on center of mass :   0.167256E-16  0.278760E-17  0.000000E+00 eV/A
  | Net torque on center of mass:   0.483037E-19 -0.129938E-17  0.571902E-18 eV

  Energy and forces in a compact form:
  | Total energy uncorrected      :         -0.592036533058082E+06 eV
  | Total energy corrected        :         -0.592036533058082E+06 eV  <-- do not rely on this value for anything but (periodic) metals
  | Electronic free energy        :         -0.592036533058082E+06 eV
  Total atomic forces (unitary forces cleaned) [eV/Ang]:
  |   1         -0.402385956412624E-04         -0.316133178664281E-05         -0.378317603775135E-05
  |   2          0.402385956412791E-04          0.316133178664559E-05          0.378317603775135E-05

  ------------------------------------ 
  Start decomposition of the XC Energy 
  ------------------------------------ 
  X and C from original XC functional choice 
  Hartree-Fock Energy :          0.000000000 Ha              0.000000000 eV
  X Energy            :       -389.385647886 Ha         -10595.722583413 eV
  C Energy            :         -5.941096005 Ha           -161.665447746 eV
  Total XC Energy     :       -395.326743891 Ha         -10757.388031160 eV
  ------------------------------------ 
  LDA X and C from self-consistent density 
  X Energy LDA        :       -379.834102733 Ha         -10335.811815691 eV
  C Energy LDA        :         -9.175073639 Ha           -249.666456603 eV
  ------------------------------------ 
  End decomposition of the XC Energy 
  ------------------------------------ 

------------------------------------------------------------
  Relaxation / MD: End force evaluation.       :  max(cpu_time)    wall_clock(cpu1)
  | Time for this force evaluation             :       12.482 s           4.536 s

------------------------------------------------------------
  Geometry optimization: Attempting to predict improved coordinates.

  Removing unitary transformations (pure translations, rotations) from forces on atoms.
  Atomic forces before filtering:
  | Net force on center of mass :   0.167256E-16  0.278760E-17  0.000000E+00 eV/A
  | Net torque on center of mass:   0.483037E-19 -0.129938E-17  0.571902E-18 eV
  Atomic forces after filtering:
  | Net force on center of mass :  -0.544452E-20  0.000000E+00  0.680565E-21 eV/A
  | Net torque on center of mass:   0.900349E-22 -0.720279E-21  0.000000E+00 eV
  Net remaining forces (excluding translations, rotations) in present geometry:
  || Forces on atoms   || =   0.402386E-04 eV/A.
  Maximum force component is  0.402386E-04 eV/A.
  Present geometry is converged.

------------------------------------------------------------
  Final atomic structure:
                         x [A]             y [A]             z [A]
            atom         0.04983225       -0.04942255       -0.12529248  O
            atom         1.96754527        0.10124193        0.05500819  Pb
------------------------------------------------------------

------------------------------------------------------------------------------
  Final output of selected total energy values:

  The following output summarizes some interesting total energy values
  at the end of a run (AFTER all relaxation, molecular dynamics, etc.).

  | Total energy of the DFT / Hartree-Fock s.c.f. calculation      :        -592036.533058082 eV
  | Final zero-broadening corrected energy (caution - metals only) :        -592036.533058082 eV
  | For reference only, the value of 1 Hartree used in FHI-aims is :             27.211384500 eV

  Before relying on these values, please be sure to understand exactly which
  total energy value is referred to by a given number. Different objects may
  all carry the same name 'total energy'. Definitions:

  Total energy of the DFT / Hartree-Fock s.c.f. calculation:
  | Note that this energy does not include ANY quantities calculated after the
  | s.c.f. cycle, in particular not ANY RPA, MP2, etc. many-body perturbation terms.

  Final zero-broadening corrected energy:
  | For metallic systems only, a broadening of the occupation numbers at the Fermi
  | level can be extrapolated back to zero broadening by an electron-gas inspired
  | formula. For all systems that are not real metals, this value can be
  | meaningless and should be avoided.

------------------------------------------------------------------------------
  Methods described in the following list of references were used in this FHI-aims run.
  If you publish the results, please make sure to cite these reference if they apply.
  FHI-aims is an academic code, and for our developers (often, Ph.D. students
  and postdocs), scientific credit in the community is essential.
  Thank you for helping us!

  For any use of FHI-aims, please cite:

    Volker Blum, Ralf Gehrke, Felix Hanke, Paula Havu, Ville Havu,
    Xinguo Ren, Karsten Reuter, and Matthias Scheffler
    'Ab initio molecular simulations with numeric atom-centered orbitals'
    Computer Physics Communications 180, 2175-2196 (2009)
    http://dx.doi.org/10.1016/j.cpc.2009.06.022


  For the real-space grid partitioning and parallelization used in this calculation, please cite:

    Ville Havu, Volker Blum, Paula Havu, and Matthias Scheffler,
    'Efficient O(N) integration for all-electron electronic structure calculation'
    'using numerically tabulated basis functions'
    Journal of Computational Physics 228, 8367-8379 (2009).
    http://dx.doi.org/10.1016/j.jcp.2009.08.008

  Of course, there are many other important community references, e.g., those cited in the
  above references. Our list is limited to references that describe implementations in the
  FHI-aims code. The reason is purely practical (length of this list) - please credit others as well.

 * A warning was issued further up regarding the accuracy of onsite integrals.
   An integral with a negative eigenvalue was among the flagged integrals.
   In most standard situations, this warning is probably harmless.
   If needed, this can be verified by adjusting the radial_multiplier flag.

------------------------------------------------------------
          Leaving FHI-aims.
          Date     :  20230309, Time     :  184321.142

          Computational steps:
          | Number of self-consistency cycles          :           50
          | Number of SCF (re)initializations          :            5
          | Number of relaxation steps                 :            4

          Detailed time accounting                     :  max(cpu_time)    wall_clock(cpu1)
          | Total time                                 :       97.518 s          81.426 s
          | Preparation time                           :        0.316 s           0.401 s
          | Boundary condition initalization           :        0.001 s           0.001 s
          | Grid partitioning                          :        1.234 s           0.676 s
          | Preloading free-atom quantities on grid    :        0.393 s           0.341 s
          | Free-atom superposition energy             :        0.225 s           0.165 s
          | Total time for integrations                :       39.630 s          29.408 s
          | Total time for solution of K.-S. equations :        5.784 s           4.376 s
          | Total time for EV reorthonormalization     :        0.006 s           0.006 s
          | Total time for density & force components  :       47.397 s          35.481 s
          | Total time for mixing                      :        0.880 s           1.253 s
          | Total time for Hartree multipole update    :        2.675 s           1.962 s
          | Total time for Hartree multipole sum       :        7.119 s           6.559 s
          | Total time for total energy evaluation     :        0.045 s           0.081 s
          | Total time for scaled ZORA corrections     :        0.000 s           0.000 s

          Partial memory accounting:
          | Residual value for overall tracked memory usage across tasks :     0.000000 MB (should be 0.000000 MB)
          | Peak values for overall tracked memory usage (after allocating d_wave):
          |   Minimum:        1.984 MB (on task 3)
          |   Maximum:        2.010 MB (on task 1)
          |   Average:        1.997 MB
          | Largest tracked array allocation (hessian_basis_wave):
          |   Minimum:        0.550 MB (on task 1)
          |   Maximum:        0.550 MB (on task 1)
          |   Average:        0.550 MB
          Note:  These values currently only include a subset of arrays which are explicitly tracked.
          The "true" memory usage will be greater.

          Have a nice day.
------------------------------------------------------------
